    1C
    1UUSER                                                              
    1UDATE              07.june.2018                                    
    1UTIME              13:00:56                                        
    1UHOST                                                              
    1UPGM               CalculiX                                        
    1UVERSION           Version 2.13                             
    1UCOMPILETIME       Sat Feb 10 15:01:07 EST 2018                    
    1UDIR                                                               
    1UDBN                                                               
    1UMAT    1COPPER                                                    
    2C                          1487                                     1
 -1         1 0.00000E+00-2.50000E-01 1.00000E-01
 -1         2 0.00000E+00-2.50000E-01 0.00000E+00
 -1         3 0.00000E+00 0.00000E+00 1.00000E-01
 -1         4 0.00000E+00 0.00000E+00 0.00000E+00
 -1         5 1.00000E+00-2.50000E-01 1.00000E-01
 -1         6 1.00000E+00-2.50000E-01 0.00000E+00
 -1         7 1.00000E+00 0.00000E+00 1.00000E-01
 -1         8 1.00000E+00 0.00000E+00 0.00000E+00
 -1         9 0.00000E+00-2.50000E-01 2.50000E-02
 -1        10 0.00000E+00-2.50000E-01 5.00000E-02
 -1        11 0.00000E+00-2.50000E-01 7.50000E-02
 -1        12 0.00000E+00-2.22222E-01 1.00000E-01
 -1        13 0.00000E+00-1.94444E-01 1.00000E-01
 -1        14 0.00000E+00-1.66667E-01 1.00000E-01
 -1        15 0.00000E+00-1.38889E-01 1.00000E-01
 -1        16 0.00000E+00-1.11111E-01 1.00000E-01
 -1        17 0.00000E+00-8.33333E-02 1.00000E-01
 -1        18 0.00000E+00-5.55556E-02 1.00000E-01
 -1        19 0.00000E+00-2.77778E-02 1.00000E-01
 -1        20 0.00000E+00 0.00000E+00 2.50000E-02
 -1        21 0.00000E+00 0.00000E+00 5.00000E-02
 -1        22 0.00000E+00 0.00000E+00 7.50000E-02
 -1        23 0.00000E+00-2.22222E-01 0.00000E+00
 -1        24 0.00000E+00-1.94444E-01 0.00000E+00
 -1        25 0.00000E+00-1.66667E-01 0.00000E+00
 -1        26 0.00000E+00-1.38889E-01 0.00000E+00
 -1        27 0.00000E+00-1.11111E-01 0.00000E+00
 -1        28 0.00000E+00-8.33333E-02 0.00000E+00
 -1        29 0.00000E+00-5.55556E-02 0.00000E+00
 -1        30 0.00000E+00-2.77778E-02 0.00000E+00
 -1        31 1.00000E+00-2.50000E-01 2.50000E-02
 -1        32 1.00000E+00-2.50000E-01 5.00000E-02
 -1        33 1.00000E+00-2.50000E-01 7.50000E-02
 -1        34 1.00000E+00-2.22222E-01 1.00000E-01
 -1        35 1.00000E+00-1.94444E-01 1.00000E-01
 -1        36 1.00000E+00-1.66667E-01 1.00000E-01
 -1        37 1.00000E+00-1.38889E-01 1.00000E-01
 -1        38 1.00000E+00-1.11111E-01 1.00000E-01
 -1        39 1.00000E+00-8.33333E-02 1.00000E-01
 -1        40 1.00000E+00-5.55556E-02 1.00000E-01
 -1        41 1.00000E+00-2.77778E-02 1.00000E-01
 -1        42 1.00000E+00 0.00000E+00 2.50000E-02
 -1        43 1.00000E+00 0.00000E+00 5.00000E-02
 -1        44 1.00000E+00 0.00000E+00 7.50000E-02
 -1        45 1.00000E+00-2.22222E-01 0.00000E+00
 -1        46 1.00000E+00-1.94444E-01 0.00000E+00
 -1        47 1.00000E+00-1.66667E-01 0.00000E+00
 -1        48 1.00000E+00-1.38889E-01 0.00000E+00
 -1        49 1.00000E+00-1.11111E-01 0.00000E+00
 -1        50 1.00000E+00-8.33333E-02 0.00000E+00
 -1        51 1.00000E+00-5.55556E-02 0.00000E+00
 -1        52 1.00000E+00-2.77778E-02 0.00000E+00
 -1        53 2.94118E-02-2.50000E-01 0.00000E+00
 -1        54 5.88235E-02-2.50000E-01 0.00000E+00
 -1        55 8.82353E-02-2.50000E-01 0.00000E+00
 -1        56 1.17647E-01-2.50000E-01 0.00000E+00
 -1        57 1.47059E-01-2.50000E-01 0.00000E+00
 -1        58 1.76471E-01-2.50000E-01 0.00000E+00
 -1        59 2.05882E-01-2.50000E-01 0.00000E+00
 -1        60 2.35294E-01-2.50000E-01 0.00000E+00
 -1        61 2.64706E-01-2.50000E-01 0.00000E+00
 -1        62 2.94118E-01-2.50000E-01 0.00000E+00
 -1        63 3.23529E-01-2.50000E-01 0.00000E+00
 -1        64 3.52941E-01-2.50000E-01 0.00000E+00
 -1        65 3.82353E-01-2.50000E-01 0.00000E+00
 -1        66 4.11765E-01-2.50000E-01 0.00000E+00
 -1        67 4.41176E-01-2.50000E-01 0.00000E+00
 -1        68 4.70588E-01-2.50000E-01 0.00000E+00
 -1        69 5.00000E-01-2.50000E-01 0.00000E+00
 -1        70 5.29412E-01-2.50000E-01 0.00000E+00
 -1        71 5.58824E-01-2.50000E-01 0.00000E+00
 -1        72 5.88235E-01-2.50000E-01 0.00000E+00
 -1        73 6.17647E-01-2.50000E-01 0.00000E+00
 -1        74 6.47059E-01-2.50000E-01 0.00000E+00
 -1        75 6.76471E-01-2.50000E-01 0.00000E+00
 -1        76 7.05882E-01-2.50000E-01 0.00000E+00
 -1        77 7.35294E-01-2.50000E-01 0.00000E+00
 -1        78 7.64706E-01-2.50000E-01 0.00000E+00
 -1        79 7.94118E-01-2.50000E-01 0.00000E+00
 -1        80 8.23529E-01-2.50000E-01 0.00000E+00
 -1        81 8.52941E-01-2.50000E-01 0.00000E+00
 -1        82 8.82353E-01-2.50000E-01 0.00000E+00
 -1        83 9.11765E-01-2.50000E-01 0.00000E+00
 -1        84 9.41176E-01-2.50000E-01 0.00000E+00
 -1        85 9.70588E-01-2.50000E-01 0.00000E+00
 -1        86 2.94118E-02-2.50000E-01 1.00000E-01
 -1        87 5.88235E-02-2.50000E-01 1.00000E-01
 -1        88 8.82353E-02-2.50000E-01 1.00000E-01
 -1        89 1.17647E-01-2.50000E-01 1.00000E-01
 -1        90 1.47059E-01-2.50000E-01 1.00000E-01
 -1        91 1.76471E-01-2.50000E-01 1.00000E-01
 -1        92 2.05882E-01-2.50000E-01 1.00000E-01
 -1        93 2.35294E-01-2.50000E-01 1.00000E-01
 -1        94 2.64706E-01-2.50000E-01 1.00000E-01
 -1        95 2.94118E-01-2.50000E-01 1.00000E-01
 -1        96 3.23529E-01-2.50000E-01 1.00000E-01
 -1        97 3.52941E-01-2.50000E-01 1.00000E-01
 -1        98 3.82353E-01-2.50000E-01 1.00000E-01
 -1        99 4.11765E-01-2.50000E-01 1.00000E-01
 -1       100 4.41176E-01-2.50000E-01 1.00000E-01
 -1       101 4.70588E-01-2.50000E-01 1.00000E-01
 -1       102 5.00000E-01-2.50000E-01 1.00000E-01
 -1       103 5.29412E-01-2.50000E-01 1.00000E-01
 -1       104 5.58824E-01-2.50000E-01 1.00000E-01
 -1       105 5.88235E-01-2.50000E-01 1.00000E-01
 -1       106 6.17647E-01-2.50000E-01 1.00000E-01
 -1       107 6.47059E-01-2.50000E-01 1.00000E-01
 -1       108 6.76471E-01-2.50000E-01 1.00000E-01
 -1       109 7.05882E-01-2.50000E-01 1.00000E-01
 -1       110 7.35294E-01-2.50000E-01 1.00000E-01
 -1       111 7.64706E-01-2.50000E-01 1.00000E-01
 -1       112 7.94118E-01-2.50000E-01 1.00000E-01
 -1       113 8.23529E-01-2.50000E-01 1.00000E-01
 -1       114 8.52941E-01-2.50000E-01 1.00000E-01
 -1       115 8.82353E-01-2.50000E-01 1.00000E-01
 -1       116 9.11765E-01-2.50000E-01 1.00000E-01
 -1       117 9.41176E-01-2.50000E-01 1.00000E-01
 -1       118 9.70588E-01-2.50000E-01 1.00000E-01
 -1       119 2.94118E-02 0.00000E+00 0.00000E+00
 -1       120 5.88235E-02 0.00000E+00 0.00000E+00
 -1       121 8.82353E-02 0.00000E+00 0.00000E+00
 -1       122 1.17647E-01 0.00000E+00 0.00000E+00
 -1       123 1.47059E-01 0.00000E+00 0.00000E+00
 -1       124 1.76471E-01 0.00000E+00 0.00000E+00
 -1       125 2.05882E-01 0.00000E+00 0.00000E+00
 -1       126 2.35294E-01 0.00000E+00 0.00000E+00
 -1       127 2.64706E-01 0.00000E+00 0.00000E+00
 -1       128 2.94118E-01 0.00000E+00 0.00000E+00
 -1       129 3.23529E-01 0.00000E+00 0.00000E+00
 -1       130 3.52941E-01 0.00000E+00 0.00000E+00
 -1       131 3.82353E-01 0.00000E+00 0.00000E+00
 -1       132 4.11765E-01 0.00000E+00 0.00000E+00
 -1       133 4.41176E-01 0.00000E+00 0.00000E+00
 -1       134 4.70588E-01 0.00000E+00 0.00000E+00
 -1       135 5.00000E-01 0.00000E+00 0.00000E+00
 -1       136 5.29412E-01 0.00000E+00 0.00000E+00
 -1       137 5.58824E-01 0.00000E+00 0.00000E+00
 -1       138 5.88235E-01 0.00000E+00 0.00000E+00
 -1       139 6.17647E-01 0.00000E+00 0.00000E+00
 -1       140 6.47059E-01 0.00000E+00 0.00000E+00
 -1       141 6.76471E-01 0.00000E+00 0.00000E+00
 -1       142 7.05882E-01 0.00000E+00 0.00000E+00
 -1       143 7.35294E-01 0.00000E+00 0.00000E+00
 -1       144 7.64706E-01 0.00000E+00 0.00000E+00
 -1       145 7.94118E-01 0.00000E+00 0.00000E+00
 -1       146 8.23529E-01 0.00000E+00 0.00000E+00
 -1       147 8.52941E-01 0.00000E+00 0.00000E+00
 -1       148 8.82353E-01 0.00000E+00 0.00000E+00
 -1       149 9.11765E-01 0.00000E+00 0.00000E+00
 -1       150 9.41176E-01 0.00000E+00 0.00000E+00
 -1       151 9.70588E-01 0.00000E+00 0.00000E+00
 -1       152 2.94118E-02 0.00000E+00 1.00000E-01
 -1       153 5.88235E-02 0.00000E+00 1.00000E-01
 -1       154 8.82353E-02 0.00000E+00 1.00000E-01
 -1       155 1.17647E-01 0.00000E+00 1.00000E-01
 -1       156 1.47059E-01 0.00000E+00 1.00000E-01
 -1       157 1.76471E-01 0.00000E+00 1.00000E-01
 -1       158 2.05882E-01 0.00000E+00 1.00000E-01
 -1       159 2.35294E-01 0.00000E+00 1.00000E-01
 -1       160 2.64706E-01 0.00000E+00 1.00000E-01
 -1       161 2.94118E-01 0.00000E+00 1.00000E-01
 -1       162 3.23529E-01 0.00000E+00 1.00000E-01
 -1       163 3.52941E-01 0.00000E+00 1.00000E-01
 -1       164 3.82353E-01 0.00000E+00 1.00000E-01
 -1       165 4.11765E-01 0.00000E+00 1.00000E-01
 -1       166 4.41176E-01 0.00000E+00 1.00000E-01
 -1       167 4.70588E-01 0.00000E+00 1.00000E-01
 -1       168 5.00000E-01 0.00000E+00 1.00000E-01
 -1       169 5.29412E-01 0.00000E+00 1.00000E-01
 -1       170 5.58824E-01 0.00000E+00 1.00000E-01
 -1       171 5.88235E-01 0.00000E+00 1.00000E-01
 -1       172 6.17647E-01 0.00000E+00 1.00000E-01
 -1       173 6.47059E-01 0.00000E+00 1.00000E-01
 -1       174 6.76471E-01 0.00000E+00 1.00000E-01
 -1       175 7.05882E-01 0.00000E+00 1.00000E-01
 -1       176 7.35294E-01 0.00000E+00 1.00000E-01
 -1       177 7.64706E-01 0.00000E+00 1.00000E-01
 -1       178 7.94118E-01 0.00000E+00 1.00000E-01
 -1       179 8.23529E-01 0.00000E+00 1.00000E-01
 -1       180 8.52941E-01 0.00000E+00 1.00000E-01
 -1       181 8.82353E-01 0.00000E+00 1.00000E-01
 -1       182 9.11765E-01 0.00000E+00 1.00000E-01
 -1       183 9.41176E-01 0.00000E+00 1.00000E-01
 -1       184 9.70588E-01 0.00000E+00 1.00000E-01
 -1       185 0.00000E+00-4.79580E-02 5.00407E-02
 -1       186 0.00000E+00-2.02042E-01 5.00407E-02
 -1       187 0.00000E+00-1.25000E-01 5.00000E-02
 -1       188 0.00000E+00-1.64445E-01 6.46022E-02
 -1       189 0.00000E+00-8.55551E-02 6.46022E-02
 -1       190 0.00000E+00-9.55120E-02 2.70375E-02
 -1       191 0.00000E+00-1.54488E-01 2.70375E-02
 -1       192 0.00000E+00-2.73050E-02 2.71416E-02
 -1       193 0.00000E+00-2.91424E-02 7.05516E-02
 -1       194 0.00000E+00-2.22695E-01 2.71416E-02
 -1       195 0.00000E+00-2.20858E-01 7.05516E-02
 -1       196 0.00000E+00-1.81976E-01 2.65947E-02
 -1       197 0.00000E+00-6.80240E-02 2.65947E-02
 -1       198 0.00000E+00-6.34674E-02 7.38863E-02
 -1       199 0.00000E+00-1.86533E-01 7.38863E-02
 -1       200 0.00000E+00-1.25000E-01 7.23030E-02
 -1       201 0.00000E+00-1.25000E-01 2.89104E-02
 -1       202 0.00000E+00-2.18178E-02 5.00000E-02
 -1       203 0.00000E+00-2.28182E-01 5.00000E-02
 -1       204 0.00000E+00-1.47813E-01 7.89113E-02
 -1       205 0.00000E+00-1.02187E-01 7.89113E-02
 -1       206 0.00000E+00-2.02713E-01 2.00286E-02
 -1       207 0.00000E+00-4.72870E-02 2.00286E-02
 -1       208 0.00000E+00-7.29657E-02 4.78232E-02
 -1       209 0.00000E+00-1.77034E-01 4.78232E-02
 -1       210 0.00000E+00-1.45601E-01 5.00990E-02
 -1       211 0.00000E+00-1.04399E-01 5.00990E-02
 -1       212 0.00000E+00-2.04707E-01 8.26353E-02
 -1       213 0.00000E+00-4.52930E-02 8.26353E-02
 -1       214 0.00000E+00-1.38889E-02 8.75000E-02
 -1       215 0.00000E+00-1.38286E-02 1.27732E-02
 -1       216 0.00000E+00-2.36171E-01 1.27732E-02
 -1       217 0.00000E+00-2.36111E-01 8.75000E-02
 -1       218 0.00000E+00-8.22004E-02 8.02486E-02
 -1       219 0.00000E+00-1.67800E-01 8.02486E-02
 -1       220 1.00000E+00-4.79580E-02 5.00407E-02
 -1       221 1.00000E+00-2.02042E-01 5.00407E-02
 -1       222 1.00000E+00-1.25000E-01 4.98892E-02
 -1       223 1.00000E+00-1.64445E-01 6.46022E-02
 -1       224 1.00000E+00-8.55551E-02 6.46022E-02
 -1       225 1.00000E+00-9.55120E-02 2.70375E-02
 -1       226 1.00000E+00-1.54488E-01 2.70375E-02
 -1       227 1.00000E+00-2.73050E-02 2.71416E-02
 -1       228 1.00000E+00-2.91424E-02 7.05516E-02
 -1       229 1.00000E+00-2.22695E-01 2.71416E-02
 -1       230 1.00000E+00-2.20858E-01 7.05516E-02
 -1       231 1.00000E+00-1.81976E-01 2.65947E-02
 -1       232 1.00000E+00-6.80240E-02 2.65947E-02
 -1       233 1.00000E+00-6.34674E-02 7.38863E-02
 -1       234 1.00000E+00-1.86533E-01 7.38863E-02
 -1       235 1.00000E+00-1.25000E-01 7.22871E-02
 -1       236 1.00000E+00-1.25000E-01 2.88946E-02
 -1       237 1.00000E+00-2.18178E-02 5.00000E-02
 -1       238 1.00000E+00-2.28182E-01 5.00000E-02
 -1       239 1.00000E+00-1.47813E-01 7.89113E-02
 -1       240 1.00000E+00-1.02187E-01 7.89113E-02
 -1       241 1.00000E+00-2.02713E-01 2.00286E-02
 -1       242 1.00000E+00-4.72870E-02 2.00286E-02
 -1       243 1.00000E+00-7.29657E-02 4.78232E-02
 -1       244 1.00000E+00-1.77034E-01 4.78232E-02
 -1       245 1.00000E+00-1.45601E-01 5.00937E-02
 -1       246 1.00000E+00-1.04399E-01 5.00937E-02
 -1       247 1.00000E+00-2.04707E-01 8.26353E-02
 -1       248 1.00000E+00-4.52930E-02 8.26353E-02
 -1       249 1.00000E+00-1.38889E-02 8.75000E-02
 -1       250 1.00000E+00-1.38286E-02 1.27732E-02
 -1       251 1.00000E+00-2.36171E-01 1.27732E-02
 -1       252 1.00000E+00-2.36111E-01 8.75000E-02
 -1       253 1.00000E+00-8.22004E-02 8.02486E-02
 -1       254 1.00000E+00-1.67800E-01 8.02486E-02
 -1       255 9.53278E-01-2.50000E-01 5.18522E-02
 -1       256 4.67219E-02-2.50000E-01 5.18522E-02
 -1       257 8.96118E-01-2.50000E-01 5.00000E-02
 -1       258 1.03882E-01-2.50000E-01 5.00000E-02
 -1       259 5.14706E-01-2.50000E-01 5.00000E-02
 -1       260 7.50478E-01-2.50000E-01 4.97135E-02
 -1       261 8.42376E-01-2.50000E-01 4.64352E-02
 -1       262 5.73529E-01-2.50000E-01 5.00000E-02
 -1       263 6.32353E-01-2.50000E-01 5.00000E-02
 -1       264 6.91176E-01-2.50000E-01 5.00000E-02
 -1       265 1.61727E-01-2.50000E-01 5.00000E-02
 -1       266 2.20588E-01-2.50000E-01 5.00000E-02
 -1       267 4.55882E-01-2.50000E-01 5.00000E-02
 -1       268 3.38235E-01-2.50000E-01 5.00000E-02
 -1       269 2.79412E-01-2.50000E-01 5.00000E-02
 -1       270 3.97059E-01-2.50000E-01 5.00000E-02
 -1       271 7.94645E-01-2.50000E-01 4.81025E-02
 -1       272 1.32291E-01-2.50000E-01 3.13283E-02
 -1       273 1.32293E-01-2.50000E-01 6.86621E-02
 -1       274 8.68178E-01-2.50000E-01 3.10836E-02
 -1       275 8.67759E-01-2.50000E-01 6.84130E-02
 -1       276 4.85294E-01-2.50000E-01 3.14879E-02
 -1       277 4.85294E-01-2.50000E-01 6.85121E-02
 -1       278 7.20588E-01-2.50000E-01 3.14879E-02
 -1       279 7.20588E-01-2.50000E-01 6.85121E-02
 -1       280 6.02941E-01-2.50000E-01 3.14879E-02
 -1       281 6.02941E-01-2.50000E-01 6.85121E-02
 -1       282 6.61765E-01-2.50000E-01 6.85121E-02
 -1       283 6.61765E-01-2.50000E-01 3.14879E-02
 -1       284 3.08824E-01-2.50000E-01 3.14879E-02
 -1       285 3.08824E-01-2.50000E-01 6.85121E-02
 -1       286 1.91176E-01-2.50000E-01 3.14879E-02
 -1       287 1.91176E-01-2.50000E-01 6.85121E-02
 -1       288 5.44118E-01-2.50000E-01 3.14879E-02
 -1       289 5.44118E-01-2.50000E-01 6.85121E-02
 -1       290 2.50000E-01-2.50000E-01 3.14879E-02
 -1       291 2.50000E-01-2.50000E-01 6.85121E-02
 -1       292 4.26471E-01-2.50000E-01 3.14879E-02
 -1       293 4.26471E-01-2.50000E-01 6.85121E-02
 -1       294 3.67647E-01-2.50000E-01 3.14879E-02
 -1       295 3.67647E-01-2.50000E-01 6.85121E-02
 -1       296 9.25018E-01-2.50000E-01 3.11688E-02
 -1       297 9.23311E-01-2.50000E-01 6.95589E-02
 -1       298 7.49823E-02-2.50000E-01 3.11688E-02
 -1       299 7.66892E-02-2.50000E-01 6.95589E-02
 -1       300 7.72969E-01-2.50000E-01 6.84351E-02
 -1       301 8.13800E-01-2.50000E-01 7.06360E-02
 -1       302 9.74669E-01-2.50000E-01 3.75000E-02
 -1       303 2.53309E-02-2.50000E-01 3.75000E-02
 -1       304 9.72976E-01-2.50000E-01 7.42569E-02
 -1       305 2.70237E-02-2.50000E-01 7.42569E-02
 -1       306 7.74224E-01-2.50000E-01 2.75298E-02
 -1       307 8.18833E-01-2.50000E-01 2.94222E-02
 -1       308 9.57577E-01-2.50000E-01 2.30649E-02
 -1       309 4.24232E-02-2.50000E-01 2.30649E-02
 -1       310 8.97283E-01-2.50000E-01 2.29029E-02
 -1       311 8.97283E-01-2.50000E-01 7.70971E-02
 -1       312 1.02717E-01-2.50000E-01 2.29029E-02
 -1       313 1.02717E-01-2.50000E-01 7.70971E-02
 -1       314 5.14706E-01-2.50000E-01 2.28374E-02
 -1       315 5.14706E-01-2.50000E-01 7.71626E-02
 -1       316 5.73529E-01-2.50000E-01 2.28374E-02
 -1       317 6.32353E-01-2.50000E-01 2.28374E-02
 -1       318 6.91176E-01-2.50000E-01 2.28374E-02
 -1       319 5.73529E-01-2.50000E-01 7.71626E-02
 -1       320 6.32353E-01-2.50000E-01 7.71626E-02
 -1       321 6.91176E-01-2.50000E-01 7.71626E-02
 -1       322 1.61765E-01-2.50000E-01 2.28374E-02
 -1       323 1.61765E-01-2.50000E-01 7.71626E-02
 -1       324 2.20588E-01-2.50000E-01 7.71626E-02
 -1       325 2.20588E-01-2.50000E-01 2.28374E-02
 -1       326 4.55882E-01-2.50000E-01 7.71626E-02
 -1       327 4.55882E-01-2.50000E-01 2.28374E-02
 -1       328 3.38235E-01-2.50000E-01 2.28374E-02
 -1       329 2.79412E-01-2.50000E-01 7.71626E-02
 -1       330 3.38235E-01-2.50000E-01 7.71626E-02
 -1       331 3.97059E-01-2.50000E-01 2.28374E-02
 -1       332 2.79412E-01-2.50000E-01 2.28374E-02
 -1       333 3.97059E-01-2.50000E-01 7.71626E-02
 -1       334 7.48953E-01-2.50000E-01 7.68545E-02
 -1       335 8.37156E-01-2.50000E-01 7.37337E-02
 -1       336 8.43519E-01-2.50000E-01 2.36894E-02
 -1       337 7.45896E-01-2.50000E-01 2.31245E-02
 -1       338 5.30720E-02-2.50000E-01 7.61613E-02
 -1       339 9.46928E-01-2.50000E-01 7.61613E-02
 -1       340 7.98077E-01-2.50000E-01 2.19140E-02
 -1       341 9.80731E-01-2.50000E-01 1.78683E-02
 -1       342 1.92689E-02-2.50000E-01 1.78683E-02
 -1       343 9.85294E-01-2.50000E-01 8.75000E-02
 -1       344 1.47059E-02-2.50000E-01 8.75000E-02
 -1       345 7.94118E-01-2.50000E-01 7.87949E-02
 -1       346 9.81357E-01-2.50000E-01 5.57290E-02
 -1       347 1.86432E-02-2.50000E-01 5.57290E-02
 -1       348 7.73621E-01-2.50000E-01 4.88935E-02
 -1       349 8.18451E-01-2.50000E-01 5.05312E-02
 -1       350 9.53278E-01 0.00000E+00 5.18522E-02
 -1       351 4.67219E-02 0.00000E+00 5.18522E-02
 -1       352 8.96118E-01 0.00000E+00 5.00000E-02
 -1       353 1.03882E-01 0.00000E+00 5.00000E-02
 -1       354 5.14706E-01 0.00000E+00 5.00000E-02
 -1       355 7.45908E-01 0.00000E+00 4.64219E-02
 -1       356 8.42376E-01 0.00000E+00 4.64352E-02
 -1       357 5.73529E-01 0.00000E+00 5.00000E-02
 -1       358 6.32353E-01 0.00000E+00 5.00000E-02
 -1       359 6.91176E-01 0.00000E+00 5.00000E-02
 -1       360 1.61727E-01 0.00000E+00 5.00000E-02
 -1       361 2.20588E-01 0.00000E+00 5.00000E-02
 -1       362 4.55882E-01 0.00000E+00 5.00000E-02
 -1       363 3.38235E-01 0.00000E+00 5.00000E-02
 -1       364 3.97059E-01 0.00000E+00 5.00000E-02
 -1       365 2.79412E-01 0.00000E+00 5.00000E-02
 -1       366 7.94377E-01 0.00000E+00 4.81362E-02
 -1       367 1.32291E-01 0.00000E+00 3.13283E-02
 -1       368 1.32293E-01 0.00000E+00 6.86621E-02
 -1       369 8.68178E-01 0.00000E+00 3.10836E-02
 -1       370 8.67759E-01 0.00000E+00 6.84130E-02
 -1       371 4.85294E-01 0.00000E+00 3.14879E-02
 -1       372 4.85294E-01 0.00000E+00 6.85121E-02
 -1       373 7.20104E-01 0.00000E+00 3.10175E-02
 -1       374 7.20588E-01 0.00000E+00 6.85121E-02
 -1       375 6.02941E-01 0.00000E+00 3.14879E-02
 -1       376 6.02941E-01 0.00000E+00 6.85121E-02
 -1       377 6.61765E-01 0.00000E+00 6.85121E-02
 -1       378 6.61765E-01 0.00000E+00 3.14879E-02
 -1       379 3.08824E-01 0.00000E+00 3.14879E-02
 -1       380 3.08824E-01 0.00000E+00 6.85121E-02
 -1       381 1.91176E-01 0.00000E+00 3.14879E-02
 -1       382 1.91176E-01 0.00000E+00 6.85121E-02
 -1       383 5.44118E-01 0.00000E+00 3.14879E-02
 -1       384 5.44118E-01 0.00000E+00 6.85121E-02
 -1       385 2.50000E-01 0.00000E+00 3.14879E-02
 -1       386 2.50000E-01 0.00000E+00 6.85121E-02
 -1       387 4.26471E-01 0.00000E+00 6.85121E-02
 -1       388 4.26471E-01 0.00000E+00 3.14879E-02
 -1       389 3.67647E-01 0.00000E+00 3.14879E-02
 -1       390 3.67647E-01 0.00000E+00 6.85121E-02
 -1       391 9.25018E-01 0.00000E+00 3.11688E-02
 -1       392 9.23311E-01 0.00000E+00 6.95589E-02
 -1       393 7.49823E-02 0.00000E+00 3.11688E-02
 -1       394 7.66892E-02 0.00000E+00 6.95589E-02
 -1       395 7.74593E-01 0.00000E+00 7.06427E-02
 -1       396 8.13747E-01 0.00000E+00 7.06427E-02
 -1       397 9.74669E-01 0.00000E+00 3.75000E-02
 -1       398 2.53309E-02 0.00000E+00 3.75000E-02
 -1       399 9.72976E-01 0.00000E+00 7.42569E-02
 -1       400 2.70237E-02 0.00000E+00 7.42569E-02
 -1       401 7.73103E-01 0.00000E+00 2.71182E-02
 -1       402 8.18822E-01 0.00000E+00 2.94237E-02
 -1       403 9.57577E-01 0.00000E+00 2.30649E-02
 -1       404 4.24232E-02 0.00000E+00 2.30649E-02
 -1       405 8.97283E-01 0.00000E+00 2.29029E-02
 -1       406 8.97283E-01 0.00000E+00 7.70971E-02
 -1       407 1.02717E-01 0.00000E+00 2.29029E-02
 -1       408 1.02717E-01 0.00000E+00 7.70971E-02
 -1       409 5.14706E-01 0.00000E+00 2.28374E-02
 -1       410 5.14706E-01 0.00000E+00 7.71626E-02
 -1       411 5.73529E-01 0.00000E+00 2.28374E-02
 -1       412 6.32353E-01 0.00000E+00 2.28374E-02
 -1       413 6.91176E-01 0.00000E+00 2.28374E-02
 -1       414 5.73529E-01 0.00000E+00 7.71626E-02
 -1       415 6.32353E-01 0.00000E+00 7.71626E-02
 -1       416 6.91176E-01 0.00000E+00 7.71626E-02
 -1       417 1.61765E-01 0.00000E+00 2.28374E-02
 -1       418 1.61765E-01 0.00000E+00 7.71626E-02
 -1       419 2.20588E-01 0.00000E+00 2.28374E-02
 -1       420 2.20588E-01 0.00000E+00 7.71626E-02
 -1       421 4.55882E-01 0.00000E+00 7.71626E-02
 -1       422 4.55882E-01 0.00000E+00 2.28374E-02
 -1       423 2.79412E-01 0.00000E+00 7.71626E-02
 -1       424 3.97059E-01 0.00000E+00 7.71626E-02
 -1       425 3.38235E-01 0.00000E+00 2.28374E-02
 -1       426 3.38235E-01 0.00000E+00 7.71626E-02
 -1       427 2.79412E-01 0.00000E+00 2.28374E-02
 -1       428 3.97059E-01 0.00000E+00 2.28374E-02
 -1       429 7.51117E-01 0.00000E+00 7.37447E-02
 -1       430 8.37150E-01 0.00000E+00 7.37345E-02
 -1       431 8.43519E-01 0.00000E+00 2.36894E-02
 -1       432 7.46334E-01 0.00000E+00 2.22330E-02
 -1       433 5.30720E-02 0.00000E+00 7.61613E-02
 -1       434 9.46928E-01 0.00000E+00 7.61613E-02
 -1       435 7.98004E-01 0.00000E+00 2.18944E-02
 -1       436 9.80731E-01 0.00000E+00 1.78683E-02
 -1       437 1.92689E-02 0.00000E+00 1.78683E-02
 -1       438 9.85294E-01 0.00000E+00 8.75000E-02
 -1       439 1.47059E-02 0.00000E+00 8.75000E-02
 -1       440 7.94118E-01 0.00000E+00 7.87949E-02
 -1       441 9.81357E-01 0.00000E+00 5.57290E-02
 -1       442 1.86432E-02 0.00000E+00 5.57290E-02
 -1       443 7.70031E-01 0.00000E+00 5.04132E-02
 -1       444 8.18433E-01 0.00000E+00 5.05334E-02
 -1       445 8.75001E-01-1.22788E-01 0.00000E+00
 -1       446 1.24410E-01-1.25000E-01 0.00000E+00
 -1       447 5.14993E-01-1.23939E-01 0.00000E+00
 -1       448 7.20677E-01-1.23855E-01 0.00000E+00
 -1       449 3.37985E-01-1.23713E-01 0.00000E+00
 -1       450 2.28480E-01-1.40940E-01 0.00000E+00
 -1       451 6.20738E-01-1.45401E-01 0.00000E+00
 -1       452 4.26471E-01-9.27768E-02 0.00000E+00
 -1       453 7.95223E-01-1.62715E-01 0.00000E+00
 -1       454 8.02762E-01-8.00547E-02 0.00000E+00
 -1       455 4.52759E-01-1.71026E-01 0.00000E+00
 -1       456 5.76696E-01-6.88963E-02 0.00000E+00
 -1       457 6.55699E-01-7.48898E-02 0.00000E+00
 -1       458 2.75299E-01-6.90635E-02 0.00000E+00
 -1       459 1.87874E-01-7.67567E-02 0.00000E+00
 -1       460 9.27136E-01-7.23392E-02 0.00000E+00
 -1       461 9.27136E-01-1.77661E-01 0.00000E+00
 -1       462 6.80800E-02-7.72951E-02 0.00000E+00
 -1       463 7.63329E-02-1.74632E-01 0.00000E+00
 -1       464 1.72652E-01-1.78058E-01 0.00000E+00
 -1       465 2.94232E-01-1.80711E-01 0.00000E+00
 -1       466 5.57350E-01-1.80235E-01 0.00000E+00
 -1       467 6.77945E-01-1.80235E-01 0.00000E+00
 -1       468 3.76535E-01-1.81396E-01 0.00000E+00
 -1       469 4.86639E-01-6.49369E-02 0.00000E+00
 -1       470 3.66261E-01-6.38832E-02 0.00000E+00
 -1       471 7.44554E-01-6.03702E-02 0.00000E+00
 -1       472 8.52710E-01-1.85235E-01 0.00000E+00
 -1       473 8.65231E-01-6.16136E-02 0.00000E+00
 -1       474 7.41861E-01-1.91024E-01 0.00000E+00
 -1       475 1.30545E-01-5.80156E-02 0.00000E+00
 -1       476 9.47032E-01-1.25111E-01 0.00000E+00
 -1       477 5.26992E-02-1.27620E-01 0.00000E+00
 -1       478 5.02313E-01-1.95386E-01 0.00000E+00
 -1       479 2.22165E-01-1.99868E-01 0.00000E+00
 -1       480 6.27477E-01-1.97556E-01 0.00000E+00
 -1       481 1.20542E-01-1.98678E-01 0.00000E+00
 -1       482 6.69538E-01-1.29216E-01 0.00000E+00
 -1       483 5.67942E-01-1.29100E-01 0.00000E+00
 -1       484 3.89967E-01-1.29738E-01 0.00000E+00
 -1       485 2.33514E-01-5.16662E-02 0.00000E+00
 -1       486 1.78332E-01-1.27755E-01 0.00000E+00
 -1       487 2.80728E-01-1.27274E-01 0.00000E+00
 -1       488 7.71632E-01-1.18656E-01 0.00000E+00
 -1       489 5.33046E-01-4.65292E-02 0.00000E+00
 -1       490 3.20071E-01-4.64127E-02 0.00000E+00
 -1       491 4.65234E-01-1.23549E-01 0.00000E+00
 -1       492 6.17647E-01-4.93003E-02 0.00000E+00
 -1       493 3.32620E-01-2.04149E-01 0.00000E+00
 -1       494 6.93224E-01-4.42513E-02 0.00000E+00
 -1       495 8.27194E-01-1.24871E-01 0.00000E+00
 -1       496 4.43588E-01-4.54852E-02 0.00000E+00
 -1       497 4.18526E-01-2.04778E-01 0.00000E+00
 -1       498 6.17917E-01-9.81675E-02 0.00000E+00
 -1       499 7.80210E-01-2.06119E-01 0.00000E+00
 -1       500 2.32420E-01-9.82449E-02 0.00000E+00
 -1       501 4.40309E-02-4.21792E-02 0.00000E+00
 -1       502 4.12685E-02-2.08504E-01 0.00000E+00
 -1       503 9.55135E-01-4.23729E-02 0.00000E+00
 -1       504 9.54498E-01-2.07291E-01 0.00000E+00
 -1       505 7.82733E-01-4.23798E-02 0.00000E+00
 -1       506 8.98624E-01-2.07213E-01 0.00000E+00
 -1       507 8.26790E-01-4.46692E-02 0.00000E+00
 -1       508 4.00650E-01-4.06016E-02 0.00000E+00
 -1       509 9.00789E-01-3.92536E-02 0.00000E+00
 -1       510 6.96733E-01-9.08595E-02 0.00000E+00
 -1       511 4.64208E-01-2.08980E-01 0.00000E+00
 -1       512 2.68555E-01-2.09988E-01 0.00000E+00
 -1       513 1.67691E-01-4.05581E-02 0.00000E+00
 -1       514 5.86139E-01-2.08755E-01 0.00000E+00
 -1       515 8.20867E-01-2.06259E-01 0.00000E+00
 -1       516 5.38667E-01-9.17920E-02 0.00000E+00
 -1       517 3.14836E-01-9.11129E-02 0.00000E+00
 -1       518 7.06074E-01-2.09447E-01 0.00000E+00
 -1       519 1.49628E-01-9.35364E-02 0.00000E+00
 -1       520 5.73529E-01-3.75732E-02 0.00000E+00
 -1       521 8.90004E-01-1.62449E-01 0.00000E+00
 -1       522 2.79412E-01-3.74314E-02 0.00000E+00
 -1       523 9.25981E-02-3.45474E-02 0.00000E+00
 -1       524 9.60985E-01-8.79008E-02 0.00000E+00
 -1       525 9.60823E-01-1.63665E-01 0.00000E+00
 -1       526 3.90149E-02-1.62099E-01 0.00000E+00
 -1       527 3.82192E-02-8.96792E-02 0.00000E+00
 -1       528 6.62447E-01-3.66693E-02 0.00000E+00
 -1       529 9.07933E-01-1.11994E-01 0.00000E+00
 -1       530 8.91568E-02-1.43662E-01 0.00000E+00
 -1       531 3.24979E-01-1.61920E-01 0.00000E+00
 -1       532 4.88510E-01-1.55637E-01 0.00000E+00
 -1       533 1.07226E-01-9.46521E-02 0.00000E+00
 -1       534 4.34440E-01-1.34577E-01 0.00000E+00
 -1       535 5.33782E-01-2.10963E-01 0.00000E+00
 -1       536 1.31950E-01-1.66803E-01 0.00000E+00
 -1       537 1.95646E-01-2.13105E-01 0.00000E+00
 -1       538 7.12099E-01-1.60093E-01 0.00000E+00
 -1       539 6.62169E-01-2.17168E-01 0.00000E+00
 -1       540 7.48958E-01-1.50439E-01 0.00000E+00
 -1       541 2.55309E-01-1.70955E-01 0.00000E+00
 -1       542 8.82717E-02-2.13196E-01 0.00000E+00
 -1       543 8.51468E-01-9.64026E-02 0.00000E+00
 -1       544 5.25846E-01-1.60478E-01 0.00000E+00
 -1       545 3.89808E-01-9.30745E-02 0.00000E+00
 -1       546 5.93200E-01-1.71594E-01 0.00000E+00
 -1       547 3.71110E-01-2.19176E-01 0.00000E+00
 -1       548 2.97844E-01-2.10829E-01 0.00000E+00
 -1       549 2.04126E-01-1.65551E-01 0.00000E+00
 -1       550 1.52752E-01-2.14781E-01 0.00000E+00
 -1       551 8.35092E-01-1.57688E-01 0.00000E+00
 -1       552 4.09733E-01-1.74416E-01 0.00000E+00
 -1       553 6.45226E-01-1.67086E-01 0.00000E+00
 -1       554 4.60415E-01-8.92121E-02 0.00000E+00
 -1       555 3.66891E-01-1.51926E-01 0.00000E+00
 -1       556 5.03432E-01-3.76005E-02 0.00000E+00
 -1       557 3.49331E-01-3.45858E-02 0.00000E+00
 -1       558 7.43691E-01-1.05212E-01 0.00000E+00
 -1       559 7.27386E-01-3.47817E-02 0.00000E+00
 -1       560 2.02311E-01-3.15365E-02 0.00000E+00
 -1       561 9.16209E-01-1.41153E-01 0.00000E+00
 -1       562 4.93331E-01-9.94862E-02 0.00000E+00
 -1       563 2.06807E-01-1.17665E-01 0.00000E+00
 -1       564 8.95752E-01-7.59761E-02 0.00000E+00
 -1       565 9.25793E-01-2.23434E-01 0.00000E+00
 -1       566 7.50569E-01-2.19704E-01 0.00000E+00
 -1       567 7.67630E-01-8.46342E-02 0.00000E+00
 -1       568 3.56187E-01-9.67597E-02 0.00000E+00
 -1       569 8.64289E-01-2.18835E-01 0.00000E+00
 -1       570 8.07980E-02-1.01669E-01 0.00000E+00
 -1       571 4.71189E-01-3.26924E-02 0.00000E+00
 -1       572 8.72095E-01-3.06409E-02 0.00000E+00
 -1       573 1.03959E-01-1.70232E-01 0.00000E+00
 -1       574 9.27063E-01-2.56260E-02 0.00000E+00
 -1       575 7.66213E-01-1.76451E-01 0.00000E+00
 -1       576 1.33260E-01-2.08846E-02 0.00000E+00
 -1       577 6.38373E-01-1.22251E-01 0.00000E+00
 -1       578 2.53721E-01-2.63108E-02 0.00000E+00
 -1       579 3.10371E-01-1.38183E-01 0.00000E+00
 -1       580 6.05131E-01-1.23153E-01 0.00000E+00
 -1       581 4.87828E-01-2.22383E-01 0.00000E+00
 -1       582 2.70251E-02-1.21406E-01 0.00000E+00
 -1       583 9.75083E-01-1.25004E-01 0.00000E+00